<?xml version="1.0" encoding="UTF-8"?>

<!-- generated on 07/01/20 10:59:13 by SUMO Version 0.32.0
<?xml version="1.0" encoding="UTF-8"?>

<configuration xmlns:xsi="http://www.w3.org/2001/XMLSchema-instance" xsi:noNamespaceSchemaLocation="http://sumo.dlr.de/xsd/sumoConfiguration.xsd">

    <input>
        <net-file value="C:\Users\JTech%20Global\Documents\GitHub\SumoWeb3D\sumo-web3d\sumo_web3d\server\..\scenarios/bologna-acosta/joined_buslanes.net.xml"/>
        <route-files value="C:\Users\JTech%20Global\Documents\GitHub\SumoWeb3D\sumo-web3d\sumo_web3d\server\..\scenarios/bologna-acosta/joined.rou.xml,C:\Users\JTech%20Global\Documents\GitHub\SumoWeb3D\sumo-web3d\sumo_web3d\server\..\scenarios/bologna-acosta/joined_busses.rou.xml"/>
        <additional-files value="C:\Users\JTech%20Global\Documents\GitHub\SumoWeb3D\sumo-web3d\sumo_web3d\server\..\scenarios/bologna-acosta/joined_bus_stops.add.xml,C:\Users\JTech%20Global\Documents\GitHub\SumoWeb3D\sumo-web3d\sumo_web3d\server\..\scenarios/bologna-acosta/joined_detectors.add.xml,C:\Users\JTech%20Global\Documents\GitHub\SumoWeb3D\sumo-web3d\sumo_web3d\server\..\scenarios/bologna-acosta/joined_vtypes.add.xml,C:\Users\JTech%20Global\Documents\GitHub\SumoWeb3D\sumo-web3d\sumo_web3d\server\..\scenarios/bologna-acosta/joined_tls.add.xml,C:\Users\JTech%20Global\Documents\GitHub\SumoWeb3D\sumo-web3d\sumo_web3d\server\..\scenarios/bologna-acosta/acosta-poly.xml"/>
    </input>

    <output>
        <tripinfo-output value="C:\Users\JTech%20Global\Documents\GitHub\SumoWeb3D\sumo-web3d\sumo_web3d\server\..\scenarios/bologna-acosta/tripinfos.xml"/>
        <save-state.prefix value="C:\Users\JTech%20Global\Documents\GitHub\SumoWeb3D\sumo-web3d\sumo_web3d\server\..\scenarios/bologna-acosta/state"/>
    </output>

    <report>
        <log value="C:\Users\JTech%20Global\Documents\GitHub\SumoWeb3D\sumo-web3d\sumo_web3d\server\..\scenarios/bologna-acosta/sumo_log.txt"/>
        <no-step-log value="true"/>
    </report>

    <emissions>
        <phemlight-path value="C:\Users\JTech%20Global\Documents\GitHub\SumoWeb3D\sumo-web3d\sumo_web3d\server\..\scenarios/bologna-acosta/./PHEMlight/"/>
    </emissions>

    <traci_server>
        <remote-port value="62922"/>
    </traci_server>

</configuration>
-->

<tripinfos xmlns:xsi="http://www.w3.org/2001/XMLSchema-instance" xsi:noNamespaceSchemaLocation="http://sumo.dlr.de/xsd/tripinfo_file.xsd">
    <tripinfo id="Pertini_20_1" depart="2.00" departLane="b63[0]_2" departPos="0.00" departSpeed="0.00" departDelay="0.00" arrival="75.00" arrivalLane="b4[1][1][1]_1" arrivalPos="172.70" arrivalSpeed="13.81" duration="73.00" routeLength="889.67" waitSteps="0" timeLoss="8.81" rerouteNo="0" devices="tripinfo_Pertini_20_1" vType="passenger1" speedFactor="1.00" vaporized=""/>
    <tripinfo id="Pertini_20_0" depart="0.00" departLane="b63[0]_1" departPos="0.00" departSpeed="0.00" departDelay="0.00" arrival="76.00" arrivalLane="b4[1][1][1]_0" arrivalPos="172.70" arrivalSpeed="13.79" duration="76.00" routeLength="889.67" waitSteps="0" timeLoss="11.70" rerouteNo="0" devices="tripinfo_Pertini_20_0" vType="passenger1" speedFactor="1.00" vaporized=""/>
    <tripinfo id="Pertini_20_2" depart="5.00" departLane="b63[0]_2" departPos="0.00" departSpeed="0.00" departDelay="1.00" arrival="77.00" arrivalLane="b4[1][1][1]_1" arrivalPos="172.70" arrivalSpeed="13.64" duration="72.00" routeLength="889.67" waitSteps="0" timeLoss="7.60" rerouteNo="0" devices="tripinfo_Pertini_20_2" vType="passenger2a" speedFactor="1.00" vaporized=""/>
    <tripinfo id="Prati_Capraia_10_0" depart="0.00" departLane="b3[0]_0" departPos="0.00" departSpeed="0.00" departDelay="0.00" arrival="79.00" arrivalLane="b10_0" arrivalPos="226.64" arrivalSpeed="13.81" duration="79.00" routeLength="410.85" waitSteps="40" timeLoss="49.26" rerouteNo="0" devices="tripinfo_Prati_Capraia_10_0" vType="passenger2b" speedFactor="1.00" vaporized=""/>
    <tripinfo id="Prati_Capraia_10_1" depart="4.00" departLane="b3[0]_0" departPos="0.00" departSpeed="0.00" departDelay="0.00" arrival="81.00" arrivalLane="b10_0" arrivalPos="226.64" arrivalSpeed="12.68" duration="77.00" routeLength="410.85" waitSteps="35" timeLoss="47.21" rerouteNo="0" devices="tripinfo_Prati_Capraia_10_1" vType="passenger1" speedFactor="1.00" vaporized=""/>
    <tripinfo id="Pepoli_8_16" depart="27.00" departLane="a210_0" departPos="0.00" departSpeed="0.00" departDelay="0.00" arrival="83.00" arrivalLane="a134b_0" arrivalPos="158.70" arrivalSpeed="12.44" duration="56.00" routeLength="693.78" waitSteps="0" timeLoss="5.45" rerouteNo="0" devices="tripinfo_Pepoli_8_16" vType="passenger2a" speedFactor="1.00" vaporized=""/>
    <tripinfo id="Pertini_20_7" depart="15.00" departLane="b63[0]_2" departPos="0.00" departSpeed="0.00" departDelay="0.00" arrival="85.00" arrivalLane="b4[1][1][1]_0" arrivalPos="172.70" arrivalSpeed="13.30" duration="70.00" routeLength="889.67" waitSteps="0" timeLoss="5.90" rerouteNo="0" devices="tripinfo_Pertini_20_7" vType="passenger2a" speedFactor="1.00" vaporized=""/>
    <tripinfo id="Prati_Capraia_10_7" depart="34.00" departLane="b3[0]_0" departPos="0.00" departSpeed="0.00" departDelay="0.00" arrival="87.00" arrivalLane="b10_0" arrivalPos="226.64" arrivalSpeed="13.26" duration="53.00" routeLength="410.85" waitSteps="11" timeLoss="23.38" rerouteNo="0" devices="tripinfo_Prati_Capraia_10_7" vType="passenger1" speedFactor="1.00" vaporized=""/>
    <tripinfo id="Pertini_20_9" depart="19.00" departLane="b63[0]_1" departPos="0.00" departSpeed="0.00" departDelay="0.00" arrival="90.00" arrivalLane="b4[1][1][1]_0" arrivalPos="172.70" arrivalSpeed="13.39" duration="71.00" routeLength="889.67" waitSteps="0" timeLoss="6.29" rerouteNo="0" devices="tripinfo_Pertini_20_9" vType="passenger1" speedFactor="1.00" vaporized=""/>
    <tripinfo id="Pertini_20_10" depart="21.00" departLane="b63[0]_2" departPos="0.00" departSpeed="0.00" departDelay="0.00" arrival="92.00" arrivalLane="b4[1][1][1]_0" arrivalPos="172.70" arrivalSpeed="12.83" duration="71.00" routeLength="889.67" waitSteps="0" timeLoss="6.12" rerouteNo="0" devices="tripinfo_Pertini_20_10" vType="passenger1" speedFactor="1.00" vaporized=""/>
    <tripinfo id="Pepoli_8_21" depart="37.00" departLane="a210_0" departPos="0.00" departSpeed="0.00" departDelay="1.00" arrival="93.00" arrivalLane="a134b_0" arrivalPos="158.70" arrivalSpeed="13.57" duration="56.00" routeLength="693.78" waitSteps="0" timeLoss="5.59" rerouteNo="0" devices="tripinfo_Pepoli_8_21" vType="passenger1" speedFactor="1.00" vaporized=""/>
    <tripinfo id="Certosa_9_0" depart="0.00" departLane="b22[0]_1" departPos="0.00" departSpeed="0.00" departDelay="0.00" arrival="94.00" arrivalLane="b2[1][1][1]b_1" arrivalPos="323.28" arrivalSpeed="13.01" duration="94.00" routeLength="620.07" waitSteps="37" timeLoss="49.11" rerouteNo="0" devices="tripinfo_Certosa_9_0" vType="passenger1" speedFactor="1.00" vaporized=""/>
    <tripinfo id="Pertini_20_11" depart="23.00" departLane="b63[0]_1" departPos="0.00" departSpeed="0.00" departDelay="0.00" arrival="94.00" arrivalLane="b4[1][1][1]_0" arrivalPos="172.70" arrivalSpeed="13.17" duration="71.00" routeLength="889.67" waitSteps="0" timeLoss="6.67" rerouteNo="0" devices="tripinfo_Pertini_20_11" vType="passenger1" speedFactor="1.00" vaporized=""/>
    <tripinfo id="Pepoli_8_23" depart="40.00" departLane="a210_0" departPos="0.00" departSpeed="0.00" departDelay="1.00" arrival="95.00" arrivalLane="a134b_0" arrivalPos="158.70" arrivalSpeed="13.89" duration="55.00" routeLength="693.78" waitSteps="0" timeLoss="5.03" rerouteNo="0" devices="tripinfo_Pepoli_8_23" vType="passenger4" speedFactor="1.00" vaporized=""/>
    <tripinfo id="Pertini_20_12" depart="25.00" departLane="b63[0]_2" departPos="0.00" departSpeed="0.00" departDelay="0.00" arrival="96.00" arrivalLane="b4[1][1][1]_0" arrivalPos="172.70" arrivalSpeed="13.11" duration="71.00" routeLength="889.67" waitSteps="0" timeLoss="6.67" rerouteNo="0" devices="tripinfo_Pertini_20_12" vType="passenger2a" speedFactor="1.00" vaporized=""/>
</tripinfos>
