<?xml version="1.0" encoding="UTF-8"?>

<!-- generated on 06/02/20 22:59:03 by SUMO Version 0.32.0
<?xml version="1.0" encoding="UTF-8"?>

<configuration xmlns:xsi="http://www.w3.org/2001/XMLSchema-instance" xsi:noNamespaceSchemaLocation="http://sumo.dlr.de/xsd/sumoConfiguration.xsd">

    <input>
        <net-file value="C:\Users\JTech%20Global\Documents\GitHub\SumoWeb3D\sumo-web3d\sumo_web3d\server\..\scenarios/Frankfurt-Am-Hbf/joined_buslanes.net.xml"/>
        <route-files value="C:\Users\JTech%20Global\Documents\GitHub\SumoWeb3D\sumo-web3d\sumo_web3d\server\..\scenarios/Frankfurt-Am-Hbf/joined.rou.xml,C:\Users\JTech%20Global\Documents\GitHub\SumoWeb3D\sumo-web3d\sumo_web3d\server\..\scenarios/Frankfurt-Am-Hbf/joined_busses.rou.xml"/>
        <additional-files value="C:\Users\JTech%20Global\Documents\GitHub\SumoWeb3D\sumo-web3d\sumo_web3d\server\..\scenarios/Frankfurt-Am-Hbf/joined_bus_stops.add.xml,C:\Users\JTech%20Global\Documents\GitHub\SumoWeb3D\sumo-web3d\sumo_web3d\server\..\scenarios/Frankfurt-Am-Hbf/joined_detectors.add.xml,C:\Users\JTech%20Global\Documents\GitHub\SumoWeb3D\sumo-web3d\sumo_web3d\server\..\scenarios/Frankfurt-Am-Hbf/joined_vtypes.add.xml,C:\Users\JTech%20Global\Documents\GitHub\SumoWeb3D\sumo-web3d\sumo_web3d\server\..\scenarios/Frankfurt-Am-Hbf/joined_tls.add.xml,C:\Users\JTech%20Global\Documents\GitHub\SumoWeb3D\sumo-web3d\sumo_web3d\server\..\scenarios/Frankfurt-Am-Hbf/acosta-poly.xml"/>
    </input>

    <output>
        <tripinfo-output value="C:\Users\JTech%20Global\Documents\GitHub\SumoWeb3D\sumo-web3d\sumo_web3d\server\..\scenarios/Frankfurt-Am-Hbf/tripinfos.xml"/>
        <save-state.prefix value="C:\Users\JTech%20Global\Documents\GitHub\SumoWeb3D\sumo-web3d\sumo_web3d\server\..\scenarios/Frankfurt-Am-Hbf/state"/>
    </output>

    <report>
        <log value="C:\Users\JTech%20Global\Documents\GitHub\SumoWeb3D\sumo-web3d\sumo_web3d\server\..\scenarios/Frankfurt-Am-Hbf/sumo_log.txt"/>
        <no-step-log value="true"/>
    </report>

    <emissions>
        <phemlight-path value="C:\Users\JTech%20Global\Documents\GitHub\SumoWeb3D\sumo-web3d\sumo_web3d\server\..\scenarios/Frankfurt-Am-Hbf/./PHEMlight/"/>
    </emissions>

    <traci_server>
        <remote-port value="49663"/>
    </traci_server>

</configuration>
-->

<tripinfos xmlns:xsi="http://www.w3.org/2001/XMLSchema-instance" xsi:noNamespaceSchemaLocation="http://sumo.dlr.de/xsd/tripinfo_file.xsd">
    <tripinfo id="Pertini_20_1" depart="2.00" departLane="b63[0]_2" departPos="0.00" departSpeed="0.00" departDelay="0.00" arrival="75.00" arrivalLane="b4[1][1][1]_1" arrivalPos="172.70" arrivalSpeed="13.81" duration="73.00" routeLength="889.67" waitSteps="0" timeLoss="8.81" rerouteNo="0" devices="tripinfo_Pertini_20_1" vType="passenger1" speedFactor="1.00" vaporized=""/>
    <tripinfo id="Pertini_20_0" depart="0.00" departLane="b63[0]_1" departPos="0.00" departSpeed="0.00" departDelay="0.00" arrival="76.00" arrivalLane="b4[1][1][1]_0" arrivalPos="172.70" arrivalSpeed="13.79" duration="76.00" routeLength="889.67" waitSteps="0" timeLoss="11.70" rerouteNo="0" devices="tripinfo_Pertini_20_0" vType="passenger1" speedFactor="1.00" vaporized=""/>
    <tripinfo id="Pertini_20_2" depart="5.00" departLane="b63[0]_2" departPos="0.00" departSpeed="0.00" departDelay="1.00" arrival="77.00" arrivalLane="b4[1][1][1]_1" arrivalPos="172.70" arrivalSpeed="13.64" duration="72.00" routeLength="889.67" waitSteps="0" timeLoss="7.60" rerouteNo="0" devices="tripinfo_Pertini_20_2" vType="passenger2a" speedFactor="1.00" vaporized=""/>
    <tripinfo id="Prati_Capraia_10_0" depart="0.00" departLane="b3[0]_0" departPos="0.00" departSpeed="0.00" departDelay="0.00" arrival="79.00" arrivalLane="b10_0" arrivalPos="226.64" arrivalSpeed="13.81" duration="79.00" routeLength="410.85" waitSteps="40" timeLoss="49.26" rerouteNo="0" devices="tripinfo_Prati_Capraia_10_0" vType="passenger2b" speedFactor="1.00" vaporized=""/>
    <tripinfo id="Prati_Capraia_10_1" depart="4.00" departLane="b3[0]_0" departPos="0.00" departSpeed="0.00" departDelay="0.00" arrival="81.00" arrivalLane="b10_0" arrivalPos="226.64" arrivalSpeed="12.68" duration="77.00" routeLength="410.85" waitSteps="35" timeLoss="47.21" rerouteNo="0" devices="tripinfo_Prati_Capraia_10_1" vType="passenger1" speedFactor="1.00" vaporized=""/>
    <tripinfo id="Pepoli_8_16" depart="27.00" departLane="a210_0" departPos="0.00" departSpeed="0.00" departDelay="0.00" arrival="83.00" arrivalLane="a134b_0" arrivalPos="158.70" arrivalSpeed="12.44" duration="56.00" routeLength="693.78" waitSteps="0" timeLoss="5.45" rerouteNo="0" devices="tripinfo_Pepoli_8_16" vType="passenger2a" speedFactor="1.00" vaporized=""/>
    <tripinfo id="Pertini_20_7" depart="15.00" departLane="b63[0]_2" departPos="0.00" departSpeed="0.00" departDelay="0.00" arrival="85.00" arrivalLane="b4[1][1][1]_0" arrivalPos="172.70" arrivalSpeed="13.30" duration="70.00" routeLength="889.67" waitSteps="0" timeLoss="5.90" rerouteNo="0" devices="tripinfo_Pertini_20_7" vType="passenger2a" speedFactor="1.00" vaporized=""/>
    <tripinfo id="Prati_Capraia_10_7" depart="34.00" departLane="b3[0]_0" departPos="0.00" departSpeed="0.00" departDelay="0.00" arrival="87.00" arrivalLane="b10_0" arrivalPos="226.64" arrivalSpeed="13.26" duration="53.00" routeLength="410.85" waitSteps="11" timeLoss="23.38" rerouteNo="0" devices="tripinfo_Prati_Capraia_10_7" vType="passenger1" speedFactor="1.00" vaporized=""/>
    <tripinfo id="Pertini_20_9" depart="19.00" departLane="b63[0]_1" departPos="0.00" departSpeed="0.00" departDelay="0.00" arrival="90.00" arrivalLane="b4[1][1][1]_0" arrivalPos="172.70" arrivalSpeed="13.39" duration="71.00" routeLength="889.67" waitSteps="0" timeLoss="6.29" rerouteNo="0" devices="tripinfo_Pertini_20_9" vType="passenger1" speedFactor="1.00" vaporized=""/>
    <tripinfo id="Pertini_20_10" depart="21.00" departLane="b63[0]_2" departPos="0.00" departSpeed="0.00" departDelay="0.00" arrival="92.00" arrivalLane="b4[1][1][1]_0" arrivalPos="172.70" arrivalSpeed="12.83" duration="71.00" routeLength="889.67" waitSteps="0" timeLoss="6.12" rerouteNo="0" devices="tripinfo_Pertini_20_10" vType="passenger1" speedFactor="1.00" vaporized=""/>
    <tripinfo id="Pepoli_8_21" depart="37.00" departLane="a210_0" departPos="0.00" departSpeed="0.00" departDelay="1.00" arrival="93.00" arrivalLane="a134b_0" arrivalPos="158.70" arrivalSpeed="13.57" duration="56.00" routeLength="693.78" waitSteps="0" timeLoss="5.59" rerouteNo="0" devices="tripinfo_Pepoli_8_21" vType="passenger1" speedFactor="1.00" vaporized=""/>
    <tripinfo id="Certosa_9_0" depart="0.00" departLane="b22[0]_1" departPos="0.00" departSpeed="0.00" departDelay="0.00" arrival="94.00" arrivalLane="b2[1][1][1]b_1" arrivalPos="323.28" arrivalSpeed="13.01" duration="94.00" routeLength="620.07" waitSteps="37" timeLoss="49.11" rerouteNo="0" devices="tripinfo_Certosa_9_0" vType="passenger1" speedFactor="1.00" vaporized=""/>
    <tripinfo id="Pertini_20_11" depart="23.00" departLane="b63[0]_1" departPos="0.00" departSpeed="0.00" departDelay="0.00" arrival="94.00" arrivalLane="b4[1][1][1]_0" arrivalPos="172.70" arrivalSpeed="13.17" duration="71.00" routeLength="889.67" waitSteps="0" timeLoss="6.67" rerouteNo="0" devices="tripinfo_Pertini_20_11" vType="passenger1" speedFactor="1.00" vaporized=""/>
    <tripinfo id="Pepoli_8_23" depart="40.00" departLane="a210_0" departPos="0.00" departSpeed="0.00" departDelay="1.00" arrival="95.00" arrivalLane="a134b_0" arrivalPos="158.70" arrivalSpeed="13.89" duration="55.00" routeLength="693.78" waitSteps="0" timeLoss="5.03" rerouteNo="0" devices="tripinfo_Pepoli_8_23" vType="passenger4" speedFactor="1.00" vaporized=""/>
    <tripinfo id="Pertini_20_12" depart="25.00" departLane="b63[0]_2" departPos="0.00" departSpeed="0.00" departDelay="0.00" arrival="96.00" arrivalLane="b4[1][1][1]_0" arrivalPos="172.70" arrivalSpeed="13.11" duration="71.00" routeLength="889.67" waitSteps="0" timeLoss="6.67" rerouteNo="0" devices="tripinfo_Pertini_20_12" vType="passenger2a" speedFactor="1.00" vaporized=""/>
    <tripinfo id="Prati_Capraia_100_2" depart="9.00" departLane="b3[0]_1" departPos="0.00" departSpeed="0.00" departDelay="0.00" arrival="99.00" arrivalLane="b3[1]b_0" arrivalPos="241.22" arrivalSpeed="13.13" duration="90.00" routeLength="624.73" waitSteps="33" timeLoss="44.80" rerouteNo="0" devices="tripinfo_Prati_Capraia_100_2" vType="passenger1" speedFactor="1.00" vaporized=""/>
    <tripinfo id="Pepoli_8_25" depart="43.00" departLane="a210_0" departPos="0.00" departSpeed="0.00" departDelay="1.00" arrival="100.00" arrivalLane="a134b_0" arrivalPos="158.70" arrivalSpeed="12.52" duration="57.00" routeLength="693.78" waitSteps="0" timeLoss="6.24" rerouteNo="0" devices="tripinfo_Pepoli_8_25" vType="passenger2b" speedFactor="1.00" vaporized=""/>
    <tripinfo id="Pertini_20_14" depart="30.00" departLane="b63[0]_1" departPos="0.00" departSpeed="0.00" departDelay="0.00" arrival="101.00" arrivalLane="b4[1][1][1]_1" arrivalPos="172.70" arrivalSpeed="12.53" duration="71.00" routeLength="889.67" waitSteps="0" timeLoss="6.28" rerouteNo="0" devices="tripinfo_Pertini_20_14" vType="passenger2a" speedFactor="1.00" vaporized=""/>
    <tripinfo id="Gandhi_80_11" depart="17.00" departLane="b1[0]_0" departPos="0.00" departSpeed="0.00" departDelay="0.00" arrival="102.00" arrivalLane="b21_0" arrivalPos="103.70" arrivalSpeed="13.61" duration="85.00" routeLength="515.76" waitSteps="39" timeLoss="47.71" rerouteNo="0" devices="tripinfo_Gandhi_80_11" vType="passenger1" speedFactor="1.00" vaporized=""/>
    <tripinfo id="Prati_Capraia_100_3" depart="14.00" departLane="b3[0]_0" departPos="0.00" departSpeed="0.00" departDelay="0.00" arrival="102.00" arrivalLane="b3[1]b_1" arrivalPos="241.22" arrivalSpeed="12.80" duration="88.00" routeLength="624.73" waitSteps="28" timeLoss="42.48" rerouteNo="0" devices="tripinfo_Prati_Capraia_100_3" vType="passenger3" speedFactor="1.00" vaporized=""/>
    <tripinfo id="Prati_Capraia_100_4" depart="19.00" departLane="b3[0]_1" departPos="0.00" departSpeed="0.00" departDelay="0.00" arrival="102.00" arrivalLane="b3[1]b_0" arrivalPos="241.22" arrivalSpeed="13.10" duration="83.00" routeLength="624.73" waitSteps="25" timeLoss="37.29" rerouteNo="0" devices="tripinfo_Prati_Capraia_100_4" vType="passenger1" speedFactor="1.00" vaporized=""/>
    <tripinfo id="Pertini_20_15" depart="32.00" departLane="b63[0]_2" departPos="0.00" departSpeed="0.00" departDelay="0.00" arrival="103.00" arrivalLane="b4[1][1][1]_0" arrivalPos="172.70" arrivalSpeed="13.75" duration="71.00" routeLength="889.67" waitSteps="0" timeLoss="6.24" rerouteNo="0" devices="tripinfo_Pertini_20_15" vType="passenger2b" speedFactor="1.00" vaporized=""/>
    <tripinfo id="Prati_Capraia_100_5" depart="24.00" departLane="b3[0]_0" departPos="0.00" departSpeed="0.00" departDelay="0.00" arrival="104.00" arrivalLane="b3[1]b_1" arrivalPos="241.22" arrivalSpeed="13.80" duration="80.00" routeLength="624.73" waitSteps="19" timeLoss="34.37" rerouteNo="0" devices="tripinfo_Prati_Capraia_100_5" vType="passenger2b" speedFactor="1.00" vaporized=""/>
    <tripinfo id="Prati_Capraia_100_9" depart="43.00" departLane="b3[0]_0" departPos="0.00" departSpeed="0.00" departDelay="0.00" arrival="105.00" arrivalLane="b3[1]b_0" arrivalPos="241.22" arrivalSpeed="13.64" duration="62.00" routeLength="624.73" waitSteps="5" timeLoss="16.86" rerouteNo="0" devices="tripinfo_Prati_Capraia_100_9" vType="passenger2b" speedFactor="1.00" vaporized=""/>
    <tripinfo id="Pertini_20_16" depart="34.00" departLane="b63[0]_1" departPos="0.00" departSpeed="0.00" departDelay="0.00" arrival="105.00" arrivalLane="b4[1][1][1]_0" arrivalPos="172.70" arrivalSpeed="13.09" duration="71.00" routeLength="889.67" waitSteps="0" timeLoss="6.33" rerouteNo="0" devices="tripinfo_Pertini_20_16" vType="passenger3" speedFactor="1.00" vaporized=""/>
    <tripinfo id="Prati_Capraia_100_8" depart="38.00" departLane="b3[0]_1" departPos="0.00" departSpeed="0.00" departDelay="0.00" arrival="107.00" arrivalLane="b3[1]b_1" arrivalPos="241.22" arrivalSpeed="13.42" duration="69.00" routeLength="624.73" waitSteps="8" timeLoss="23.81" rerouteNo="0" devices="tripinfo_Prati_Capraia_100_8" vType="passenger3" speedFactor="1.00" vaporized=""/>
    <tripinfo id="Prati_Capraia_100_11" depart="53.00" departLane="b3[0]_0" departPos="0.00" departSpeed="0.00" departDelay="0.00" arrival="107.00" arrivalLane="b3[1]b_0" arrivalPos="241.22" arrivalSpeed="13.78" duration="54.00" routeLength="624.73" waitSteps="0" timeLoss="8.57" rerouteNo="0" devices="tripinfo_Prati_Capraia_100_11" vType="passenger3" speedFactor="1.00" vaporized=""/>
    <tripinfo id="Pertini_20_17" depart="36.00" departLane="b63[0]_2" departPos="0.00" departSpeed="0.00" departDelay="0.00" arrival="107.00" arrivalLane="b4[1][1][1]_0" arrivalPos="172.70" arrivalSpeed="13.06" duration="71.00" routeLength="889.67" waitSteps="0" timeLoss="6.11" rerouteNo="0" devices="tripinfo_Pertini_20_17" vType="passenger4" speedFactor="1.00" vaporized=""/>
    <tripinfo id="Prati_Capraia_100_10" depart="48.00" departLane="b3[0]_1" departPos="0.00" departSpeed="0.00" departDelay="0.00" arrival="109.00" arrivalLane="b3[1]b_1" arrivalPos="241.22" arrivalSpeed="13.63" duration="61.00" routeLength="624.73" waitSteps="0" timeLoss="15.61" rerouteNo="0" devices="tripinfo_Prati_Capraia_100_10" vType="passenger4" speedFactor="1.00" vaporized=""/>
    <tripinfo id="Prati_Capraia_100_12" depart="58.00" departLane="b3[0]_1" departPos="0.00" departSpeed="0.00" departDelay="0.00" arrival="109.00" arrivalLane="b3[1]b_0" arrivalPos="241.22" arrivalSpeed="13.58" duration="51.00" routeLength="624.73" waitSteps="0" timeLoss="5.31" rerouteNo="0" devices="tripinfo_Prati_Capraia_100_12" vType="passenger1" speedFactor="1.00" vaporized=""/>
    <tripinfo id="Pertini_20_18" depart="38.00" departLane="b63[0]_1" departPos="0.00" departSpeed="0.00" departDelay="0.00" arrival="109.00" arrivalLane="b4[1][1][1]_0" arrivalPos="172.70" arrivalSpeed="13.37" duration="71.00" routeLength="889.67" waitSteps="0" timeLoss="6.07" rerouteNo="0" devices="tripinfo_Pertini_20_18" vType="passenger5" speedFactor="1.00" vaporized=""/>
    <tripinfo id="Pertini_20_19" depart="40.00" departLane="b63[0]_2" departPos="0.00" departSpeed="0.00" departDelay="0.00" arrival="111.00" arrivalLane="b4[1][1][1]_1" arrivalPos="172.70" arrivalSpeed="12.70" duration="71.00" routeLength="889.67" waitSteps="0" timeLoss="6.57" rerouteNo="0" devices="tripinfo_Pertini_20_19" vType="passenger2a" speedFactor="1.00" vaporized=""/>
    <tripinfo id="Gandhi_80_45" depart="70.00" departLane="b1[0]_0" departPos="0.00" departSpeed="0.00" departDelay="0.00" arrival="112.00" arrivalLane="b21_0" arrivalPos="103.70" arrivalSpeed="13.49" duration="42.00" routeLength="515.76" waitSteps="0" timeLoss="4.36" rerouteNo="0" devices="tripinfo_Gandhi_80_45" vType="passenger1" speedFactor="1.00" vaporized=""/>
    <tripinfo id="Prati_Capraia_100_13" depart="63.00" departLane="b3[0]_0" departPos="0.00" departSpeed="0.00" departDelay="0.00" arrival="114.00" arrivalLane="b3[1]b_0" arrivalPos="241.22" arrivalSpeed="13.22" duration="51.00" routeLength="624.73" waitSteps="0" timeLoss="5.08" rerouteNo="0" devices="tripinfo_Prati_Capraia_100_13" vType="passenger2b" speedFactor="1.00" vaporized=""/>
    <tripinfo id="Pertini_20_21" depart="45.00" departLane="b63[0]_1" departPos="0.00" departSpeed="0.00" departDelay="0.00" arrival="116.00" arrivalLane="b4[1][1][1]_0" arrivalPos="172.70" arrivalSpeed="13.09" duration="71.00" routeLength="889.67" waitSteps="0" timeLoss="6.47" rerouteNo="0" devices="tripinfo_Pertini_20_21" vType="passenger4" speedFactor="1.00" vaporized=""/>
    <tripinfo id="Prati_Capraia_100_14" depart="68.00" departLane="b3[0]_1" departPos="0.00" departSpeed="0.00" departDelay="0.00" arrival="118.00" arrivalLane="b3[1]b_0" arrivalPos="241.22" arrivalSpeed="13.45" duration="50.00" routeLength="624.73" waitSteps="0" timeLoss="4.77" rerouteNo="0" devices="tripinfo_Prati_Capraia_100_14" vType="passenger2b" speedFactor="1.00" vaporized=""/>
    <tripinfo id="Audinot_7_0" depart="0.00" departLane="a131_0" departPos="0.00" departSpeed="0.00" departDelay="0.00" arrival="123.00" arrivalLane="a209_0" arrivalPos="395.74" arrivalSpeed="13.00" duration="123.00" routeLength="875.18" waitSteps="47" timeLoss="59.44" rerouteNo="0" devices="tripinfo_Audinot_7_0" vType="passenger4" speedFactor="1.00" vaporized=""/>
    <tripinfo id="Costa_3_21" depart="54.00" departLane="a78[0]_0" departPos="0.00" departSpeed="0.00" departDelay="0.00" arrival="123.00" arrivalLane="a14_0" arrivalPos="90.27" arrivalSpeed="13.67" duration="69.00" routeLength="854.03" waitSteps="0" timeLoss="7.40" rerouteNo="0" devices="tripinfo_Costa_3_21" vType="passenger1" speedFactor="1.00" vaporized=""/>
    <tripinfo id="Pertini_20_25" depart="53.00" departLane="b63[0]_1" departPos="0.00" departSpeed="0.00" departDelay="0.00" arrival="124.00" arrivalLane="b4[1][1][1]_0" arrivalPos="172.70" arrivalSpeed="12.54" duration="71.00" routeLength="889.67" waitSteps="0" timeLoss="6.44" rerouteNo="0" devices="tripinfo_Pertini_20_25" vType="passenger2a" speedFactor="1.00" vaporized=""/>
    <tripinfo id="Pertini_20_26" depart="55.00" departLane="b63[0]_2" departPos="0.00" departSpeed="0.00" departDelay="0.00" arrival="126.00" arrivalLane="b4[1][1][1]_0" arrivalPos="172.70" arrivalSpeed="12.85" duration="71.00" routeLength="889.67" waitSteps="0" timeLoss="6.71" rerouteNo="0" devices="tripinfo_Pertini_20_26" vType="passenger2a" speedFactor="1.00" vaporized=""/>
    <tripinfo id="Prati_Capraia_100_16" depart="77.00" departLane="b3[0]_0" departPos="0.00" departSpeed="0.00" departDelay="0.00" arrival="127.00" arrivalLane="b3[1]b_0" arrivalPos="241.22" arrivalSpeed="12.88" duration="50.00" routeLength="624.73" waitSteps="0" timeLoss="4.91" rerouteNo="0" devices="tripinfo_Prati_Capraia_100_16" vType="passenger2b" speedFactor="1.00" vaporized=""/>
    <tripinfo id="Prati_Capraia_10_19" depart="92.00" departLane="b3[0]_0" departPos="0.00" departSpeed="0.00" departDelay="0.00" arrival="127.00" arrivalLane="b10_0" arrivalPos="226.64" arrivalSpeed="12.74" duration="35.00" routeLength="410.85" waitSteps="0" timeLoss="4.55" rerouteNo="0" devices="tripinfo_Prati_Capraia_10_19" vType="passenger3" speedFactor="1.00" vaporized=""/>
    <tripinfo id="Pertini_20_22" depart="47.00" departLane="b63[0]_2" departPos="0.00" departSpeed="0.00" departDelay="0.00" arrival="128.00" arrivalLane="b4[1][1][1]_1" arrivalPos="172.70" arrivalSpeed="12.92" duration="81.00" routeLength="889.67" waitSteps="6" timeLoss="16.36" rerouteNo="0" devices="tripinfo_Pertini_20_22" vType="passenger3" speedFactor="1.00" vaporized=""/>
    <tripinfo id="Pertini_20_27" depart="58.00" departLane="b63[0]_1" departPos="0.00" departSpeed="0.00" departDelay="0.00" arrival="129.00" arrivalLane="b4[1][1][1]_0" arrivalPos="172.70" arrivalSpeed="13.61" duration="71.00" routeLength="889.67" waitSteps="0" timeLoss="6.02" rerouteNo="0" devices="tripinfo_Pertini_20_27" vType="passenger1" speedFactor="1.00" vaporized=""/>
    <tripinfo id="Pertini_20_28" depart="60.00" departLane="b63[0]_2" departPos="0.00" departSpeed="0.00" departDelay="0.00" arrival="131.00" arrivalLane="b4[1][1][1]_0" arrivalPos="172.70" arrivalSpeed="13.26" duration="71.00" routeLength="889.67" waitSteps="0" timeLoss="6.29" rerouteNo="0" devices="tripinfo_Pertini_20_28" vType="passenger1" speedFactor="1.00" vaporized=""/>
    <tripinfo id="Pertini_10_20" depart="43.00" departLane="b63[0]_2" departPos="0.00" departSpeed="0.00" departDelay="0.00" arrival="131.00" arrivalLane="b10_0" arrivalPos="226.64" arrivalSpeed="12.72" duration="88.00" routeLength="944.54" waitSteps="7" timeLoss="19.38" rerouteNo="0" devices="tripinfo_Pertini_10_20" vType="passenger4" speedFactor="1.00" vaporized=""/>
    <tripinfo id="Prati_Capraia_100_17" depart="82.00" departLane="b3[0]_1" departPos="0.00" departSpeed="0.00" departDelay="0.00" arrival="132.00" arrivalLane="b3[1]b_0" arrivalPos="241.22" arrivalSpeed="13.46" duration="50.00" routeLength="624.73" waitSteps="0" timeLoss="4.75" rerouteNo="0" devices="tripinfo_Prati_Capraia_100_17" vType="passenger2a" speedFactor="1.00" vaporized=""/>
    <tripinfo id="Pepoli_9_1" depart="1.00" departLane="a210_0" departPos="0.00" departSpeed="0.00" departDelay="0.00" arrival="135.00" arrivalLane="a54_0" arrivalPos="302.30" arrivalSpeed="13.48" duration="134.00" routeLength="1310.48" waitSteps="23" timeLoss="39.56" rerouteNo="0" devices="tripinfo_Pepoli_9_1" vType="passenger2a" speedFactor="1.00" vaporized=""/>
    <tripinfo id="Prati_Capraia_100_18" depart="87.00" departLane="b3[0]_0" departPos="0.00" departSpeed="0.00" departDelay="0.00" arrival="137.00" arrivalLane="b3[1]b_0" arrivalPos="241.22" arrivalSpeed="13.21" duration="50.00" routeLength="624.73" waitSteps="0" timeLoss="4.65" rerouteNo="0" devices="tripinfo_Prati_Capraia_100_18" vType="passenger2b" speedFactor="1.00" vaporized=""/>
    <tripinfo id="Borgo_20_3" depart="18.00" departLane="b6_1" departPos="0.00" departSpeed="0.00" departDelay="0.00" arrival="145.00" arrivalLane="b4[1][1][1]_1" arrivalPos="172.70" arrivalSpeed="13.64" duration="127.00" routeLength="552.91" waitSteps="75" timeLoss="86.67" rerouteNo="0" devices="tripinfo_Borgo_20_3" vType="passenger1" speedFactor="1.00" vaporized=""/>
    <tripinfo id="Prati_Capraia_30_6" depart="29.00" departLane="b3[0]_1" departPos="0.00" departSpeed="0.00" departDelay="0.00" arrival="146.00" arrivalLane="b70_0" arrivalPos="61.95" arrivalSpeed="12.78" duration="117.00" routeLength="806.81" waitSteps="37" timeLoss="58.06" rerouteNo="0" devices="tripinfo_Prati_Capraia_30_6" vType="ignoring2b" speedFactor="1.00" vaporized=""/>
    <tripinfo id="Borgo_20_4" depart="24.00" departLane="b6_1" departPos="0.00" departSpeed="0.00" departDelay="0.00" arrival="147.00" arrivalLane="b4[1][1][1]_1" arrivalPos="172.70" arrivalSpeed="12.75" duration="123.00" routeLength="552.91" waitSteps="73" timeLoss="82.77" rerouteNo="0" devices="tripinfo_Borgo_20_4" vType="passenger2a" speedFactor="1.00" vaporized=""/>
    <tripinfo id="Pepoli_10_4" depart="6.00" departLane="a210_0" departPos="0.00" departSpeed="0.00" departDelay="0.00" arrival="149.00" arrivalLane="a204[1][1]_0" arrivalPos="436.47" arrivalSpeed="13.59" duration="143.00" routeLength="1470.66" waitSteps="21" timeLoss="36.56" rerouteNo="0" devices="tripinfo_Pepoli_10_4" vType="passenger2a" speedFactor="1.00" vaporized=""/>
    <tripinfo id="Malvasia_30_15" depart="72.00" departLane="b52_0" departPos="0.00" departSpeed="0.00" departDelay="0.00" arrival="149.00" arrivalLane="b70_0" arrivalPos="61.95" arrivalSpeed="13.06" duration="77.00" routeLength="961.32" waitSteps="0" timeLoss="7.01" rerouteNo="0" devices="tripinfo_Malvasia_30_15" vType="passenger4" speedFactor="1.00" vaporized=""/>
    <tripinfo id="Turati_3_2" depart="69.00" departLane="a195_0" departPos="0.00" departSpeed="0.00" departDelay="0.00" arrival="149.00" arrivalLane="a14_0" arrivalPos="90.27" arrivalSpeed="13.43" duration="80.00" routeLength="953.01" waitSteps="0" timeLoss="10.51" rerouteNo="0" devices="tripinfo_Turati_3_2" vType="ignoring5" speedFactor="1.00" vaporized=""/>
    <tripinfo id="Borgo_20_6" depart="36.00" departLane="b6_1" departPos="0.00" departSpeed="0.00" departDelay="0.00" arrival="150.00" arrivalLane="b4[1][1][1]_1" arrivalPos="172.70" arrivalSpeed="13.69" duration="114.00" routeLength="552.91" waitSteps="62" timeLoss="73.97" rerouteNo="0" devices="tripinfo_Borgo_20_6" vType="passenger3" speedFactor="1.00" vaporized=""/>
    <tripinfo id="Pepoli_10_11" depart="20.00" departLane="a210_0" departPos="0.00" departSpeed="0.00" departDelay="2.00" arrival="151.00" arrivalLane="a204[1][1]_0" arrivalPos="436.47" arrivalSpeed="12.63" duration="131.00" routeLength="1470.66" waitSteps="10" timeLoss="24.24" rerouteNo="0" devices="tripinfo_Pepoli_10_11" vType="passenger1" speedFactor="1.00" vaporized=""/>
    <tripinfo id="Borgo_20_7" depart="42.00" departLane="b6_1" departPos="0.00" departSpeed="0.00" departDelay="0.00" arrival="152.00" arrivalLane="b4[1][1][1]_1" arrivalPos="172.70" arrivalSpeed="13.11" duration="110.00" routeLength="552.91" waitSteps="58" timeLoss="69.85" rerouteNo="0" devices="tripinfo_Borgo_20_7" vType="passenger2b" speedFactor="1.00" vaporized=""/>
    <tripinfo id="Pepoli_10_18" depart="30.00" departLane="a210_0" departPos="0.00" departSpeed="0.00" departDelay="0.00" arrival="153.00" arrivalLane="a204[1][1]_0" arrivalPos="436.47" arrivalSpeed="12.77" duration="123.00" routeLength="1470.66" waitSteps="2" timeLoss="16.48" rerouteNo="0" devices="tripinfo_Pepoli_10_18" vType="passenger2a" speedFactor="1.00" vaporized=""/>
    <tripinfo id="Pepoli_8_28" depart="48.00" departLane="a210_0" departPos="0.00" departSpeed="0.00" departDelay="0.00" arrival="153.00" arrivalLane="a134b_0" arrivalPos="158.70" arrivalSpeed="12.73" duration="105.00" routeLength="693.78" waitSteps="43" timeLoss="54.61" rerouteNo="0" devices="tripinfo_Pepoli_8_28" vType="passenger2b" speedFactor="1.00" vaporized=""/>
    <tripinfo id="Pepoli_3_0" depart="0.00" departLane="a210_2" departPos="0.00" departSpeed="0.00" departDelay="0.00" arrival="154.00" arrivalLane="a14_0" arrivalPos="90.27" arrivalSpeed="13.70" duration="154.00" routeLength="1950.08" waitSteps="0" timeLoss="12.80" rerouteNo="0" devices="tripinfo_Pepoli_3_0" vType="ignoring3" speedFactor="1.00" vaporized=""/>
    <tripinfo id="Pepoli_10_19" depart="32.00" departLane="a210_1" departPos="0.00" departSpeed="0.00" departDelay="0.00" arrival="155.00" arrivalLane="a204[1][1]_0" arrivalPos="436.47" arrivalSpeed="12.84" duration="123.00" routeLength="1470.66" waitSteps="0" timeLoss="16.36" rerouteNo="0" devices="tripinfo_Pepoli_10_19" vType="passenger4" speedFactor="1.00" vaporized=""/>
    <tripinfo id="Borgo_20_9" depart="54.00" departLane="b6_1" departPos="0.00" departSpeed="0.00" departDelay="0.00" arrival="156.00" arrivalLane="b4[1][1][1]_1" arrivalPos="172.70" arrivalSpeed="12.86" duration="102.00" routeLength="552.91" waitSteps="49" timeLoss="61.95" rerouteNo="0" devices="tripinfo_Borgo_20_9" vType="passenger1" speedFactor="1.00" vaporized=""/>
    <tripinfo id="Pepoli_10_22" depart="37.00" departLane="a210_1" departPos="0.00" departSpeed="0.00" departDelay="0.00" arrival="156.00" arrivalLane="a204[1][1]_0" arrivalPos="436.47" arrivalSpeed="13.63" duration="119.00" routeLength="1470.66" waitSteps="0" timeLoss="13.00" rerouteNo="0" devices="tripinfo_Pepoli_10_22" vType="passenger1" speedFactor="1.00" vaporized=""/>
    <tripinfo id="Pepoli_10_10" depart="17.00" departLane="a210_0" departPos="0.00" departSpeed="0.00" departDelay="0.00" arrival="159.00" arrivalLane="a204[1][1]_0" arrivalPos="436.47" arrivalSpeed="13.88" duration="142.00" routeLength="1470.66" waitSteps="13" timeLoss="36.06" rerouteNo="0" devices="tripinfo_Pepoli_10_10" vType="passenger4" speedFactor="1.00" vaporized=""/>
    <tripinfo id="Pepoli_3_2" depart="3.00" departLane="a210_2" departPos="0.00" departSpeed="0.00" departDelay="0.00" arrival="159.00" arrivalLane="a14_0" arrivalPos="90.27" arrivalSpeed="12.94" duration="156.00" routeLength="1950.08" waitSteps="0" timeLoss="14.80" rerouteNo="0" devices="tripinfo_Pepoli_3_2" vType="ignoring1" speedFactor="1.00" vaporized=""/>
    <tripinfo id="Borgo_100_0" depart="0.00" departLane="b6_0" departPos="0.00" departSpeed="0.00" departDelay="0.00" arrival="160.00" arrivalLane="b3[1]b_0" arrivalPos="241.22" arrivalSpeed="12.65" duration="160.00" routeLength="798.33" waitSteps="91" timeLoss="101.80" rerouteNo="0" devices="tripinfo_Borgo_100_0" vType="passenger3" speedFactor="1.00" vaporized=""/>
    <tripinfo id="Borgo_20_13" depart="79.00" departLane="b6_1" departPos="0.00" departSpeed="0.00" departDelay="0.00" arrival="160.00" arrivalLane="b4[1][1][1]_1" arrivalPos="172.70" arrivalSpeed="12.95" duration="81.00" routeLength="552.91" waitSteps="28" timeLoss="40.83" rerouteNo="0" devices="tripinfo_Borgo_20_13" vType="passenger1" speedFactor="1.00" vaporized=""/>
    <tripinfo id="Borgo_100_2" depart="12.00" departLane="b6_0" departPos="0.00" departSpeed="0.00" departDelay="0.00" arrival="161.00" arrivalLane="b3[1]b_0" arrivalPos="241.22" arrivalSpeed="13.05" duration="149.00" routeLength="798.33" waitSteps="80" timeLoss="91.46" rerouteNo="0" devices="tripinfo_Borgo_100_2" vType="passenger1" speedFactor="1.00" vaporized=""/>
    <tripinfo id="Nigrisoli_50_6" depart="37.00" departLane="b65_0" departPos="0.00" departSpeed="0.00" departDelay="0.00" arrival="161.00" arrivalLane="b35[1][1][1][1]_0" arrivalPos="392.80" arrivalSpeed="12.53" duration="124.00" routeLength="1295.00" waitSteps="15" timeLoss="30.50" rerouteNo="0" devices="tripinfo_Nigrisoli_50_6" vType="ignoring2a" speedFactor="1.00" vaporized=""/>
    <tripinfo id="Pepoli_8_44" depart="75.00" departLane="a210_0" departPos="0.00" departSpeed="0.00" departDelay="0.00" arrival="162.00" arrivalLane="a134b_0" arrivalPos="158.70" arrivalSpeed="12.82" duration="87.00" routeLength="693.78" waitSteps="20" timeLoss="36.64" rerouteNo="0" devices="tripinfo_Pepoli_8_44" vType="passenger3" speedFactor="1.00" vaporized=""/>
    <tripinfo id="Borgo_100_8" depart="48.00" departLane="b6_0" departPos="0.00" departSpeed="0.00" departDelay="0.00" arrival="163.00" arrivalLane="b3[1]b_0" arrivalPos="241.22" arrivalSpeed="12.74" duration="115.00" routeLength="798.33" waitSteps="46" timeLoss="57.36" rerouteNo="0" devices="tripinfo_Borgo_100_8" vType="passenger1" speedFactor="1.00" vaporized=""/>
    <tripinfo id="Pepoli_8_48" depart="82.00" departLane="a210_0" departPos="0.00" departSpeed="0.00" departDelay="0.00" arrival="164.00" arrivalLane="a134b_0" arrivalPos="158.70" arrivalSpeed="13.04" duration="82.00" routeLength="693.78" waitSteps="17" timeLoss="31.49" rerouteNo="0" devices="tripinfo_Pepoli_8_48" vType="passenger2b" speedFactor="1.00" vaporized=""/>